ITEM: TIMESTEP
0
ITEM: NUMBER OF ATOMS
4
ITEM: BOX BOUNDS xy xz yz pp pp pp
0 10 0
0 10 0
0 10 0
ITEM: ATOMS id mol type x y z ix iy iz
1 1 1 1 1 1 0 0 0
2 1 1 2 1 1 0 0 0
3 1 1 3 1 1 0 0 0
4 1 1 4 1 1 0 0 0
ITEM: TIMESTEP
1
ITEM: NUMBER OF ATOMS
4
ITEM: BOX BOUNDS xy xz yz pp pp pp
0 10 0
0 10 0
0 10 0
ITEM: ATOMS id mol type x y z ix iy iz
1 1 1 1.1 1 1 0 0 0
2 1 1 2.1 1 1 0 0 0
3 1 1 3.1 1 1 0 0 0
4 1 1 4.1 1 1 0 0 0
